# vtk DataFile Version 2.0
sampleSurface
ASCII
DATASET POLYDATA
POINTS 8 float
-32.1182 18.8021 2.29167 32.118 18.8021 2.43055 32.118 -18.8021 2.56944 -32.1182 -18.8021
2.56944 -32.1182 18.8021 -2.84723 32.118 -18.8021 -2.98612 -32.1182 -18.8021 -2.98612
32.118 18.8021 -3.12501 
POLYGONS 4 16
3 3 2 5 3 3 5 6 3 1 7
4 3 1 4 0 
CELL_DATA 4
FIELD attributes 1
zone 1 4 float
0 0 1 1 
